file 58472 1732898657                                           
version 3
run VoIP-0-20241129-23:42:38-2920
attr configname VoIP
attr datetime 20241129-23:42:38
attr datetimef 20241129-234238
attr experiment VoIP
attr inifile omnetppMulticell.ini
attr iterationvars $numUEs=10
attr iterationvarsd numUEs=10
attr iterationvarsf numUEs=10-
attr measurement $numUEs=10
attr network _4gltefinal.simulations.MultiCell
attr processid 2920
attr repetition 0
attr replication #0
attr resultdir results
attr runnumber 0
attr seedset 0
itervar numUEs 10
config image-path ../../inet4.5/images;../../simu5g/images
config network _4gltefinal.simulations.MultiCell
config **.mac.schedulingDisciplineDl "\"MAXCI\""
config **.mac.schedulingDisciplineUl "\"MAXCI\""
config **.ue[*].numApps 1
config **.server.numApps 1
config **.ue[*].mobility.initFromDisplayString false
config **.ue[*].mobility.typename LinearMobility
config **.ue[*].mobility.speed "uniform(1mps, 3mps)"
config **.ue[*].macCellId "intuniform(1, 3)"
config **.ue[*].masterId "intuniform(1, 3)"
config **.ue[*].app[*].typename VoIPReceiver
config **.ue[*].app[*].localPort 3000
config **.server.app[*].PacketSize 40
config **.server.app[*].destAddress "\"ue[\"+string(ancestorIndex(0))+\"]\""
config **.server.app[*].destPort 3000
config **.server.app[*].localPort "3088 + ancestorIndex(0)"
config **.server.app[*].typename VoIPSender
config **.server.app[*].startTime "uniform(0s, 0.02s)"
config **.server.app[*].qos "\"HighPriority\""
config **.ue[*].app[*].qos "\"HighPriority\""
config image-path ../../images
config output-scalar-file-append false
config sim-time-limit 20s
config output-scalar-file results/VoIP/0.sca
config output-vector-file results/VoIP/0.vec
config seed-set 0
config **.vector-recording true
config **.ue[*].mobility.typename StationaryMobility
config **.ue[*].mobility.initialX "uniform(400m, 800m)"
config **.ue[*].mobility.initialY "uniform(400m, 800m)"
config **.ue[*].mobility.initialZ 0m
config **.mobility.constraintAreaMinX 0m
config **.mobility.constraintAreaMinY 0m
config **.mobility.constraintAreaMaxX 2000m
config **.mobility.constraintAreaMaxY 2000m
config **.mobility.constraintAreaMinZ 0m
config **.mobility.constraintAreaMaxZ 0m
config **.mobility.initFromDisplayString true
config *.numCells 3
config *.numUe 10
config **.ueTxPower 26
config **.eNodeBTxPower 40
config *.configurator.config "xmldoc(\"./demo.xml\")"

vector 0 MultiCell.server.ppp[0].queue queueLength:vector ETV
attr autoWarmupFilter false
attr interpolationmode sample-hold
attr recordingmode vector
attr source "warmup(atomic(constant0(packetPushEnded) + count(packetPushStarted) - count(packetPulled) - count(packetRemoved) - count(packetDropped)))"
attr title "queue length"
attr unit pk
vector 1 MultiCell.server.ppp[0].queue queueBitLength:vector ETV
attr autoWarmupFilter false
attr interpolationmode sample-hold
attr recordingmode vector
attr source "warmup(atomic(constant0(packetPushEnded) + sum(packetLength(packetPushStarted)) - sum(packetLength(packetPulled)) - sum(packetLength(packetRemoved)) - sum(packetLength(packetDropped))))"
attr title "queue bit length"
attr unit b
vector 2 MultiCell.server.ppp[0].ppp transmissionState:vector ETV
attr interpolationmode sample-hold
attr recordingmode vector
attr source transmissionStateChanged
attr title "tx state"
vector 3 MultiCell.server.udp passedUpPk:vector(count) ETV
attr interpolationmode none
attr recordingmode vector(count)
attr source packetSentToUpper
attr title "packets passed up, count"
vector 4 MultiCell.server.udp droppedPkWrongPort:vector(count) ETV
attr interpolationmode none
attr recordingmode vector(count)
attr source packetDropReasonIsNoPortFound(packetDropped)
attr title "packets dropped (wrong port), count"
vector 5 MultiCell.server.udp droppedPkBadChecksum:vector(count) ETV
attr interpolationmode none
attr recordingmode vector(count)
attr source packetDropReasonIsIncorrectlyReceived(packetDropped)
attr title "packets dropped (checksum error), count"
vector 6 MultiCell.router.ppp[0].queue queueLength:vector ETV
attr autoWarmupFilter false
attr interpolationmode sample-hold
attr recordingmode vector
attr source "warmup(atomic(constant0(packetPushEnded) + count(packetPushStarted) - count(packetPulled) - count(packetRemoved) - count(packetDropped)))"
attr title "queue length"
attr unit pk
vector 7 MultiCell.router.ppp[0].queue queueBitLength:vector ETV
attr autoWarmupFilter false
attr interpolationmode sample-hold
attr recordingmode vector
attr source "warmup(atomic(constant0(packetPushEnded) + sum(packetLength(packetPushStarted)) - sum(packetLength(packetPulled)) - sum(packetLength(packetRemoved)) - sum(packetLength(packetDropped))))"
attr title "queue bit length"
attr unit b
vector 8 MultiCell.router.ppp[0].ppp transmissionState:vector ETV
attr interpolationmode sample-hold
attr recordingmode vector
attr source transmissionStateChanged
attr title "tx state"
vector 9 MultiCell.router.ppp[1].queue queueLength:vector ETV
attr autoWarmupFilter false
attr interpolationmode sample-hold
attr recordingmode vector
attr source "warmup(atomic(constant0(packetPushEnded) + count(packetPushStarted) - count(packetPulled) - count(packetRemoved) - count(packetDropped)))"
attr title "queue length"
attr unit pk
vector 10 MultiCell.router.ppp[1].queue queueBitLength:vector ETV
attr autoWarmupFilter false
attr interpolationmode sample-hold
attr recordingmode vector
attr source "warmup(atomic(constant0(packetPushEnded) + sum(packetLength(packetPushStarted)) - sum(packetLength(packetPulled)) - sum(packetLength(packetRemoved)) - sum(packetLength(packetDropped))))"
attr title "queue bit length"
attr unit b
vector 11 MultiCell.router.ppp[1].ppp transmissionState:vector ETV
attr interpolationmode sample-hold
attr recordingmode vector
attr source transmissionStateChanged
attr title "tx state"
vector 12 MultiCell.pgw.ppp[0].queue queueLength:vector ETV
attr autoWarmupFilter false
attr interpolationmode sample-hold
attr recordingmode vector
attr source "warmup(atomic(constant0(packetPushEnded) + count(packetPushStarted) - count(packetPulled) - count(packetRemoved) - count(packetDropped)))"
attr title "queue length"
attr unit pk
vector 13 MultiCell.pgw.ppp[0].queue queueBitLength:vector ETV
attr autoWarmupFilter false
attr interpolationmode sample-hold
attr recordingmode vector
attr source "warmup(atomic(constant0(packetPushEnded) + sum(packetLength(packetPushStarted)) - sum(packetLength(packetPulled)) - sum(packetLength(packetRemoved)) - sum(packetLength(packetDropped))))"
attr title "queue bit length"
attr unit b
vector 14 MultiCell.pgw.ppp[0].ppp transmissionState:vector ETV
attr interpolationmode sample-hold
attr recordingmode vector
attr source transmissionStateChanged
attr title "tx state"
vector 15 MultiCell.pgw.ppp[1].queue queueLength:vector ETV
attr autoWarmupFilter false
attr interpolationmode sample-hold
attr recordingmode vector
attr source "warmup(atomic(constant0(packetPushEnded) + count(packetPushStarted) - count(packetPulled) - count(packetRemoved) - count(packetDropped)))"
attr title "queue length"
attr unit pk
vector 16 MultiCell.pgw.ppp[1].queue queueBitLength:vector ETV
attr autoWarmupFilter false
attr interpolationmode sample-hold
attr recordingmode vector
attr source "warmup(atomic(constant0(packetPushEnded) + sum(packetLength(packetPushStarted)) - sum(packetLength(packetPulled)) - sum(packetLength(packetRemoved)) - sum(packetLength(packetDropped))))"
attr title "queue bit length"
attr unit b
vector 17 MultiCell.pgw.ppp[1].ppp transmissionState:vector ETV
attr interpolationmode sample-hold
attr recordingmode vector
attr source transmissionStateChanged
attr title "tx state"
vector 18 MultiCell.pgw.ppp[2].queue queueLength:vector ETV
attr autoWarmupFilter false
attr interpolationmode sample-hold
attr recordingmode vector
attr source "warmup(atomic(constant0(packetPushEnded) + count(packetPushStarted) - count(packetPulled) - count(packetRemoved) - count(packetDropped)))"
attr title "queue length"
attr unit pk
vector 19 MultiCell.pgw.ppp[2].queue queueBitLength:vector ETV
attr autoWarmupFilter false
attr interpolationmode sample-hold
attr recordingmode vector
attr source "warmup(atomic(constant0(packetPushEnded) + sum(packetLength(packetPushStarted)) - sum(packetLength(packetPulled)) - sum(packetLength(packetRemoved)) - sum(packetLength(packetDropped))))"
attr title "queue bit length"
attr unit b
vector 20 MultiCell.pgw.ppp[2].ppp transmissionState:vector ETV
attr interpolationmode sample-hold
attr recordingmode vector
attr source transmissionStateChanged
attr title "tx state"
vector 21 MultiCell.pgw.pppIf.queue queueLength:vector ETV
attr autoWarmupFilter false
attr interpolationmode sample-hold
attr recordingmode vector
attr source "warmup(atomic(constant0(packetPushEnded) + count(packetPushStarted) - count(packetPulled) - count(packetRemoved) - count(packetDropped)))"
attr title "queue length"
attr unit pk
vector 22 MultiCell.pgw.pppIf.queue queueBitLength:vector ETV
attr autoWarmupFilter false
attr interpolationmode sample-hold
attr recordingmode vector
attr source "warmup(atomic(constant0(packetPushEnded) + sum(packetLength(packetPushStarted)) - sum(packetLength(packetPulled)) - sum(packetLength(packetRemoved)) - sum(packetLength(packetDropped))))"
attr title "queue bit length"
attr unit b
vector 23 MultiCell.pgw.pppIf.ppp transmissionState:vector ETV
attr interpolationmode sample-hold
attr recordingmode vector
attr source transmissionStateChanged
attr title "tx state"
vector 24 MultiCell.pgw.udp passedUpPk:vector(count) ETV
attr interpolationmode none
attr recordingmode vector(count)
attr source packetSentToUpper
attr title "packets passed up, count"
vector 25 MultiCell.pgw.udp droppedPkWrongPort:vector(count) ETV
attr interpolationmode none
attr recordingmode vector(count)
attr source packetDropReasonIsNoPortFound(packetDropped)
attr title "packets dropped (wrong port), count"
vector 26 MultiCell.pgw.udp droppedPkBadChecksum:vector(count) ETV
attr interpolationmode none
attr recordingmode vector(count)
attr source packetDropReasonIsIncorrectlyReceived(packetDropped)
attr title "packets dropped (checksum error), count"
vector 27 MultiCell.eNB[0].pppIf.queue queueLength:vector ETV
attr autoWarmupFilter false
attr interpolationmode sample-hold
attr recordingmode vector
attr source "warmup(atomic(constant0(packetPushEnded) + count(packetPushStarted) - count(packetPulled) - count(packetRemoved) - count(packetDropped)))"
attr title "queue length"
attr unit pk
vector 28 MultiCell.eNB[0].pppIf.queue queueBitLength:vector ETV
attr autoWarmupFilter false
attr interpolationmode sample-hold
attr recordingmode vector
attr source "warmup(atomic(constant0(packetPushEnded) + sum(packetLength(packetPushStarted)) - sum(packetLength(packetPulled)) - sum(packetLength(packetRemoved)) - sum(packetLength(packetDropped))))"
attr title "queue bit length"
attr unit b
vector 29 MultiCell.eNB[0].pppIf.ppp transmissionState:vector ETV
attr interpolationmode sample-hold
attr recordingmode vector
attr source transmissionStateChanged
attr title "tx state"
vector 30 MultiCell.eNB[0].pppMEHostIf.queue queueLength:vector ETV
attr autoWarmupFilter false
attr interpolationmode sample-hold
attr recordingmode vector
attr source "warmup(atomic(constant0(packetPushEnded) + count(packetPushStarted) - count(packetPulled) - count(packetRemoved) - count(packetDropped)))"
attr title "queue length"
attr unit pk
vector 31 MultiCell.eNB[0].pppMEHostIf.queue queueBitLength:vector ETV
attr autoWarmupFilter false
attr interpolationmode sample-hold
attr recordingmode vector
attr source "warmup(atomic(constant0(packetPushEnded) + sum(packetLength(packetPushStarted)) - sum(packetLength(packetPulled)) - sum(packetLength(packetRemoved)) - sum(packetLength(packetDropped))))"
attr title "queue bit length"
attr unit b
vector 32 MultiCell.eNB[0].pppMEHostIf.ppp transmissionState:vector ETV
attr interpolationmode sample-hold
attr recordingmode vector
attr source transmissionStateChanged
attr title "tx state"
vector 33 MultiCell.eNB[0].udp passedUpPk:vector(count) ETV
attr interpolationmode none
attr recordingmode vector(count)
attr source packetSentToUpper
attr title "packets passed up, count"
vector 34 MultiCell.eNB[0].udp droppedPkWrongPort:vector(count) ETV
attr interpolationmode none
attr recordingmode vector(count)
attr source packetDropReasonIsNoPortFound(packetDropped)
attr title "packets dropped (wrong port), count"
vector 35 MultiCell.eNB[0].udp droppedPkBadChecksum:vector(count) ETV
attr interpolationmode none
attr recordingmode vector(count)
attr source packetDropReasonIsIncorrectlyReceived(packetDropped)
attr title "packets dropped (checksum error), count"
vector 36 MultiCell.eNB[1].pppIf.queue queueLength:vector ETV
attr autoWarmupFilter false
attr interpolationmode sample-hold
attr recordingmode vector
attr source "warmup(atomic(constant0(packetPushEnded) + count(packetPushStarted) - count(packetPulled) - count(packetRemoved) - count(packetDropped)))"
attr title "queue length"
attr unit pk
vector 37 MultiCell.eNB[1].pppIf.queue queueBitLength:vector ETV
attr autoWarmupFilter false
attr interpolationmode sample-hold
attr recordingmode vector
attr source "warmup(atomic(constant0(packetPushEnded) + sum(packetLength(packetPushStarted)) - sum(packetLength(packetPulled)) - sum(packetLength(packetRemoved)) - sum(packetLength(packetDropped))))"
attr title "queue bit length"
attr unit b
vector 38 MultiCell.eNB[1].pppIf.ppp transmissionState:vector ETV
attr interpolationmode sample-hold
attr recordingmode vector
attr source transmissionStateChanged
attr title "tx state"
vector 39 MultiCell.eNB[1].pppMEHostIf.queue queueLength:vector ETV
attr autoWarmupFilter false
attr interpolationmode sample-hold
attr recordingmode vector
attr source "warmup(atomic(constant0(packetPushEnded) + count(packetPushStarted) - count(packetPulled) - count(packetRemoved) - count(packetDropped)))"
attr title "queue length"
attr unit pk
vector 40 MultiCell.eNB[1].pppMEHostIf.queue queueBitLength:vector ETV
attr autoWarmupFilter false
attr interpolationmode sample-hold
attr recordingmode vector
attr source "warmup(atomic(constant0(packetPushEnded) + sum(packetLength(packetPushStarted)) - sum(packetLength(packetPulled)) - sum(packetLength(packetRemoved)) - sum(packetLength(packetDropped))))"
attr title "queue bit length"
attr unit b
vector 41 MultiCell.eNB[1].pppMEHostIf.ppp transmissionState:vector ETV
attr interpolationmode sample-hold
attr recordingmode vector
attr source transmissionStateChanged
attr title "tx state"
vector 42 MultiCell.eNB[1].udp passedUpPk:vector(count) ETV
attr interpolationmode none
attr recordingmode vector(count)
attr source packetSentToUpper
attr title "packets passed up, count"
vector 43 MultiCell.eNB[1].udp droppedPkWrongPort:vector(count) ETV
attr interpolationmode none
attr recordingmode vector(count)
attr source packetDropReasonIsNoPortFound(packetDropped)
attr title "packets dropped (wrong port), count"
vector 44 MultiCell.eNB[1].udp droppedPkBadChecksum:vector(count) ETV
attr interpolationmode none
attr recordingmode vector(count)
attr source packetDropReasonIsIncorrectlyReceived(packetDropped)
attr title "packets dropped (checksum error), count"
vector 45 MultiCell.eNB[2].pppIf.queue queueLength:vector ETV
attr autoWarmupFilter false
attr interpolationmode sample-hold
attr recordingmode vector
attr source "warmup(atomic(constant0(packetPushEnded) + count(packetPushStarted) - count(packetPulled) - count(packetRemoved) - count(packetDropped)))"
attr title "queue length"
attr unit pk
vector 46 MultiCell.eNB[2].pppIf.queue queueBitLength:vector ETV
attr autoWarmupFilter false
attr interpolationmode sample-hold
attr recordingmode vector
attr source "warmup(atomic(constant0(packetPushEnded) + sum(packetLength(packetPushStarted)) - sum(packetLength(packetPulled)) - sum(packetLength(packetRemoved)) - sum(packetLength(packetDropped))))"
attr title "queue bit length"
attr unit b
vector 47 MultiCell.eNB[2].pppIf.ppp transmissionState:vector ETV
attr interpolationmode sample-hold
attr recordingmode vector
attr source transmissionStateChanged
attr title "tx state"
vector 48 MultiCell.eNB[2].pppMEHostIf.queue queueLength:vector ETV
attr autoWarmupFilter false
attr interpolationmode sample-hold
attr recordingmode vector
attr source "warmup(atomic(constant0(packetPushEnded) + count(packetPushStarted) - count(packetPulled) - count(packetRemoved) - count(packetDropped)))"
attr title "queue length"
attr unit pk
vector 49 MultiCell.eNB[2].pppMEHostIf.queue queueBitLength:vector ETV
attr autoWarmupFilter false
attr interpolationmode sample-hold
attr recordingmode vector
attr source "warmup(atomic(constant0(packetPushEnded) + sum(packetLength(packetPushStarted)) - sum(packetLength(packetPulled)) - sum(packetLength(packetRemoved)) - sum(packetLength(packetDropped))))"
attr title "queue bit length"
attr unit b
vector 50 MultiCell.eNB[2].pppMEHostIf.ppp transmissionState:vector ETV
attr interpolationmode sample-hold
attr recordingmode vector
attr source transmissionStateChanged
attr title "tx state"
vector 51 MultiCell.eNB[2].udp passedUpPk:vector(count) ETV
attr interpolationmode none
attr recordingmode vector(count)
attr source packetSentToUpper
attr title "packets passed up, count"
vector 52 MultiCell.eNB[2].udp droppedPkWrongPort:vector(count) ETV
attr interpolationmode none
attr recordingmode vector(count)
attr source packetDropReasonIsNoPortFound(packetDropped)
attr title "packets dropped (wrong port), count"
vector 53 MultiCell.eNB[2].udp droppedPkBadChecksum:vector(count) ETV
attr interpolationmode none
attr recordingmode vector(count)
attr source packetDropReasonIsIncorrectlyReceived(packetDropped)
attr title "packets dropped (checksum error), count"
vector 54 MultiCell.ue[0].udp passedUpPk:vector(count) ETV
attr interpolationmode none
attr recordingmode vector(count)
attr source packetSentToUpper
attr title "packets passed up, count"
vector 55 MultiCell.ue[0].udp droppedPkWrongPort:vector(count) ETV
attr interpolationmode none
attr recordingmode vector(count)
attr source packetDropReasonIsNoPortFound(packetDropped)
attr title "packets dropped (wrong port), count"
vector 56 MultiCell.ue[0].udp droppedPkBadChecksum:vector(count) ETV
attr interpolationmode none
attr recordingmode vector(count)
attr source packetDropReasonIsIncorrectlyReceived(packetDropped)
attr title "packets dropped (checksum error), count"
vector 57 MultiCell.ue[1].udp passedUpPk:vector(count) ETV
attr interpolationmode none
attr recordingmode vector(count)
attr source packetSentToUpper
attr title "packets passed up, count"
vector 58 MultiCell.ue[1].udp droppedPkWrongPort:vector(count) ETV
attr interpolationmode none
attr recordingmode vector(count)
attr source packetDropReasonIsNoPortFound(packetDropped)
attr title "packets dropped (wrong port), count"
vector 59 MultiCell.ue[1].udp droppedPkBadChecksum:vector(count) ETV
attr interpolationmode none
attr recordingmode vector(count)
attr source packetDropReasonIsIncorrectlyReceived(packetDropped)
attr title "packets dropped (checksum error), count"
vector 60 MultiCell.ue[2].udp passedUpPk:vector(count) ETV
attr interpolationmode none
attr recordingmode vector(count)
attr source packetSentToUpper
attr title "packets passed up, count"
vector 61 MultiCell.ue[2].udp droppedPkWrongPort:vector(count) ETV
attr interpolationmode none
attr recordingmode vector(count)
attr source packetDropReasonIsNoPortFound(packetDropped)
attr title "packets dropped (wrong port), count"
vector 62 MultiCell.ue[2].udp droppedPkBadChecksum:vector(count) ETV
attr interpolationmode none
attr recordingmode vector(count)
attr source packetDropReasonIsIncorrectlyReceived(packetDropped)
attr title "packets dropped (checksum error), count"
vector 63 MultiCell.ue[3].udp passedUpPk:vector(count) ETV
attr interpolationmode none
attr recordingmode vector(count)
attr source packetSentToUpper
attr title "packets passed up, count"
vector 64 MultiCell.ue[3].udp droppedPkWrongPort:vector(count) ETV
attr interpolationmode none
attr recordingmode vector(count)
attr source packetDropReasonIsNoPortFound(packetDropped)
attr title "packets dropped (wrong port), count"
vector 65 MultiCell.ue[3].udp droppedPkBadChecksum:vector(count) ETV
attr interpolationmode none
attr recordingmode vector(count)
attr source packetDropReasonIsIncorrectlyReceived(packetDropped)
attr title "packets dropped (checksum error), count"
vector 66 MultiCell.ue[4].udp passedUpPk:vector(count) ETV
attr interpolationmode none
attr recordingmode vector(count)
attr source packetSentToUpper
attr title "packets passed up, count"
vector 67 MultiCell.ue[4].udp droppedPkWrongPort:vector(count) ETV
attr interpolationmode none
attr recordingmode vector(count)
attr source packetDropReasonIsNoPortFound(packetDropped)
attr title "packets dropped (wrong port), count"
vector 68 MultiCell.ue[4].udp droppedPkBadChecksum:vector(count) ETV
attr interpolationmode none
attr recordingmode vector(count)
attr source packetDropReasonIsIncorrectlyReceived(packetDropped)
attr title "packets dropped (checksum error), count"
vector 69 MultiCell.ue[5].udp passedUpPk:vector(count) ETV
attr interpolationmode none
attr recordingmode vector(count)
attr source packetSentToUpper
attr title "packets passed up, count"
vector 70 MultiCell.ue[5].udp droppedPkWrongPort:vector(count) ETV
attr interpolationmode none
attr recordingmode vector(count)
attr source packetDropReasonIsNoPortFound(packetDropped)
attr title "packets dropped (wrong port), count"
vector 71 MultiCell.ue[5].udp droppedPkBadChecksum:vector(count) ETV
attr interpolationmode none
attr recordingmode vector(count)
attr source packetDropReasonIsIncorrectlyReceived(packetDropped)
attr title "packets dropped (checksum error), count"
vector 72 MultiCell.ue[6].udp passedUpPk:vector(count) ETV
attr interpolationmode none
attr recordingmode vector(count)
attr source packetSentToUpper
attr title "packets passed up, count"
vector 73 MultiCell.ue[6].udp droppedPkWrongPort:vector(count) ETV
attr interpolationmode none
attr recordingmode vector(count)
attr source packetDropReasonIsNoPortFound(packetDropped)
attr title "packets dropped (wrong port), count"
vector 74 MultiCell.ue[6].udp droppedPkBadChecksum:vector(count) ETV
attr interpolationmode none
attr recordingmode vector(count)
attr source packetDropReasonIsIncorrectlyReceived(packetDropped)
attr title "packets dropped (checksum error), count"
vector 75 MultiCell.ue[7].udp passedUpPk:vector(count) ETV
attr interpolationmode none
attr recordingmode vector(count)
attr source packetSentToUpper
attr title "packets passed up, count"
vector 76 MultiCell.ue[7].udp droppedPkWrongPort:vector(count) ETV
attr interpolationmode none
attr recordingmode vector(count)
attr source packetDropReasonIsNoPortFound(packetDropped)
attr title "packets dropped (wrong port), count"
vector 77 MultiCell.ue[7].udp droppedPkBadChecksum:vector(count) ETV
attr interpolationmode none
attr recordingmode vector(count)
attr source packetDropReasonIsIncorrectlyReceived(packetDropped)
attr title "packets dropped (checksum error), count"
vector 78 MultiCell.ue[8].udp passedUpPk:vector(count) ETV
attr interpolationmode none
attr recordingmode vector(count)
attr source packetSentToUpper
attr title "packets passed up, count"
vector 79 MultiCell.ue[8].udp droppedPkWrongPort:vector(count) ETV
attr interpolationmode none
attr recordingmode vector(count)
attr source packetDropReasonIsNoPortFound(packetDropped)
attr title "packets dropped (wrong port), count"
vector 80 MultiCell.ue[8].udp droppedPkBadChecksum:vector(count) ETV
attr interpolationmode none
attr recordingmode vector(count)
attr source packetDropReasonIsIncorrectlyReceived(packetDropped)
attr title "packets dropped (checksum error), count"
vector 81 MultiCell.ue[9].udp passedUpPk:vector(count) ETV
attr interpolationmode none
attr recordingmode vector(count)
attr source packetSentToUpper
attr title "packets passed up, count"
vector 82 MultiCell.ue[9].udp droppedPkWrongPort:vector(count) ETV
attr interpolationmode none
attr recordingmode vector(count)
attr source packetDropReasonIsNoPortFound(packetDropped)
attr title "packets dropped (wrong port), count"
vector 83 MultiCell.ue[9].udp droppedPkBadChecksum:vector(count) ETV
attr interpolationmode none
attr recordingmode vector(count)
attr source packetDropReasonIsIncorrectlyReceived(packetDropped)
attr title "packets dropped (checksum error), count"
vector 84 MultiCell.ue[0].cellularNic.phy servingCell:vector ETV
attr recordingmode vector
attr source servingCell
attr title "ID of the serving eNodeB for the UE"
attr unit ""
vector 85 MultiCell.ue[1].cellularNic.phy servingCell:vector ETV
attr recordingmode vector
attr source servingCell
attr title "ID of the serving eNodeB for the UE"
attr unit ""
vector 86 MultiCell.ue[2].cellularNic.phy servingCell:vector ETV
attr recordingmode vector
attr source servingCell
attr title "ID of the serving eNodeB for the UE"
attr unit ""
vector 87 MultiCell.ue[3].cellularNic.phy servingCell:vector ETV
attr recordingmode vector
attr source servingCell
attr title "ID of the serving eNodeB for the UE"
attr unit ""
vector 88 MultiCell.ue[4].cellularNic.phy servingCell:vector ETV
attr recordingmode vector
attr source servingCell
attr title "ID of the serving eNodeB for the UE"
attr unit ""
vector 89 MultiCell.ue[5].cellularNic.phy servingCell:vector ETV
attr recordingmode vector
attr source servingCell
attr title "ID of the serving eNodeB for the UE"
attr unit ""
vector 90 MultiCell.ue[6].cellularNic.phy servingCell:vector ETV
attr recordingmode vector
attr source servingCell
attr title "ID of the serving eNodeB for the UE"
attr unit ""
vector 91 MultiCell.ue[7].cellularNic.phy servingCell:vector ETV
attr recordingmode vector
attr source servingCell
attr title "ID of the serving eNodeB for the UE"
attr unit ""
vector 92 MultiCell.ue[8].cellularNic.phy servingCell:vector ETV
attr recordingmode vector
attr source servingCell
attr title "ID of the serving eNodeB for the UE"
attr unit ""
vector 93 MultiCell.ue[9].cellularNic.phy servingCell:vector ETV
attr recordingmode vector
attr source servingCell
attr title "ID of the serving eNodeB for the UE"
attr unit ""
vector 94 MultiCell.eNB[0].cellularNic.mac avgServedBlocksUl:vector ETV
attr recordingmode vector
attr source avgServedBlocksUl
attr title "Avg Served Blocks Ul"
attr unit blocks
vector 95 MultiCell.eNB[0].cellularNic.mac avgServedBlocksDl:vector ETV
attr recordingmode vector
attr source avgServedBlocksDl
attr title "Avg Served Blocks Dl"
attr unit blocks
vector 96 MultiCell.eNB[1].cellularNic.mac avgServedBlocksUl:vector ETV
attr recordingmode vector
attr source avgServedBlocksUl
attr title "Avg Served Blocks Ul"
attr unit blocks
vector 97 MultiCell.eNB[1].cellularNic.mac avgServedBlocksDl:vector ETV
attr recordingmode vector
attr source avgServedBlocksDl
attr title "Avg Served Blocks Dl"
attr unit blocks
vector 98 MultiCell.eNB[2].cellularNic.mac avgServedBlocksUl:vector ETV
attr recordingmode vector
attr source avgServedBlocksUl
attr title "Avg Served Blocks Ul"
attr unit blocks
vector 99 MultiCell.eNB[2].cellularNic.mac avgServedBlocksDl:vector ETV
attr recordingmode vector
attr source avgServedBlocksDl
attr title "Avg Served Blocks Dl"
attr unit blocks
vector 100 MultiCell.ue[0].cellularNic.channelModel[0] measuredSinrUl:vector ETV
attr recordingmode vector
attr source measuredSinrUl
attr title "SINR measured at feedback computation, UL"
attr unit dB
vector 101 MultiCell.ue[0].cellularNic.channelModel[0] measuredSinrDl:vector ETV
attr recordingmode vector
attr source measuredSinrDl
attr title "SINR measured at feedback computation, DL"
attr unit dB
vector 102 MultiCell.eNB[1].cellularNic.mac receivedPacketFromLowerLayer:vector(packetBytes) ETV
attr interpolationmode none
attr recordingmode vector(packetBytes)
attr source receivedPacketFromLowerLayer
vector 103 MultiCell.ue[1].cellularNic.channelModel[0] measuredSinrUl:vector ETV
attr recordingmode vector
attr source measuredSinrUl
attr title "SINR measured at feedback computation, UL"
attr unit dB
vector 104 MultiCell.ue[1].cellularNic.channelModel[0] measuredSinrDl:vector ETV
attr recordingmode vector
attr source measuredSinrDl
attr title "SINR measured at feedback computation, DL"
attr unit dB
vector 105 MultiCell.ue[2].cellularNic.channelModel[0] measuredSinrUl:vector ETV
attr recordingmode vector
attr source measuredSinrUl
attr title "SINR measured at feedback computation, UL"
attr unit dB
vector 106 MultiCell.ue[2].cellularNic.channelModel[0] measuredSinrDl:vector ETV
attr recordingmode vector
attr source measuredSinrDl
attr title "SINR measured at feedback computation, DL"
attr unit dB
vector 107 MultiCell.eNB[0].cellularNic.mac receivedPacketFromLowerLayer:vector(packetBytes) ETV
attr interpolationmode none
attr recordingmode vector(packetBytes)
attr source receivedPacketFromLowerLayer
vector 108 MultiCell.ue[3].cellularNic.channelModel[0] measuredSinrUl:vector ETV
attr recordingmode vector
attr source measuredSinrUl
attr title "SINR measured at feedback computation, UL"
attr unit dB
vector 109 MultiCell.ue[3].cellularNic.channelModel[0] measuredSinrDl:vector ETV
attr recordingmode vector
attr source measuredSinrDl